<?xml version="1.0" encoding="UTF-8"?>

<!-- generated on qui 18 abr 2019 14:49:15 -03 by SUMO gui Version 0.32.0
<?xml version="1.0" encoding="UTF-8"?>

<configuration xmlns:xsi="http://www.w3.org/2001/XMLSchema-instance" xsi:noNamespaceSchemaLocation="http://sumo.dlr.de/xsd/sumoConfiguration.xsd">

    <input>
        <net-file value="/home/eduardo/teste/LuSTScenario-2.0/scenario/lust.net.xml"/>
        <route-files value="/home/eduardo/teste/LuSTScenario-2.0/scenario/buslines.rou.xml,/home/eduardo/teste/LuSTScenario-2.0/scenario/DUARoutes/local.0.rou.xml,/home/eduardo/teste/LuSTScenario-2.0/scenario/DUARoutes/local.1.rou.xml,/home/eduardo/teste/LuSTScenario-2.0/scenario/DUARoutes/local.2.rou.xml,/home/eduardo/teste/LuSTScenario-2.0/scenario/transit.rou.xml"/>
        <additional-files value="/home/eduardo/teste/LuSTScenario-2.0/scenario/vtypes.add.xml,/home/eduardo/teste/LuSTScenario-2.0/scenario/busstops.add.xml,/home/eduardo/teste/LuSTScenario-2.0/scenario/e1detectors.add.xml,/home/eduardo/teste/LuSTScenario-2.0/scenario/lust.poly.xml"/>
    </input>

    <output>
        <summary-output value="/home/eduardo/teste/LuSTScenario-2.0/scenario/dua.actuated.summary.xml"/>
        <tripinfo-output value="/home/eduardo/teste/LuSTScenario-2.0/scenario/dua.actuated.tripinfo.xml"/>
    </output>

    <time>
        <begin value="0"/>
        <step-length value="1"/>
    </time>

    <processing>
        <ignore-junction-blocker value="20"/>
        <time-to-teleport value="600"/>
        <max-depart-delay value="600"/>
    </processing>

    <routing>
        <routing-algorithm value="dijkstra"/>
        <device.rerouting.probability value="0.7"/>
        <device.rerouting.period value="300"/>
        <device.rerouting.pre-period value="300"/>
    </routing>

    <report>
        <verbose value="true"/>
        <log value="/home/eduardo/teste/LuSTScenario-2.0/scenario/dua.actuated.log"/>
    </report>

    <gui_only>
        <tracker-interval value="1"/>
    </gui_only>

</configuration>
-->

<tripinfos xmlns:xsi="http://www.w3.org/2001/XMLSchema-instance" xsi:noNamespaceSchemaLocation="http://sumo.dlr.de/xsd/tripinfo_file.xsd">
</tripinfos>
